# vtk DataFile Version 3.0
Triangulation generated with deal.II
ASCII
DATASET UNSTRUCTURED_GRID
POINTS 75 double
0 -0.5 -0.5
1 -0.5 -0.5
0 0.5 -0.5
1 0.5 -0.5
0 -0.5 0.5
1 -0.5 0.5
0 0.5 0.5
1 0.5 0.5
0.5 -0.5 -0.5
0 0 -0.5
0 -0.5 0
1 0 -0.5
1 -0.5 0
0.5 0.5 -0.5
0 0.5 0
1 0.5 0
0.5 -0.5 0.5
0 0 0.5
1 0 0.5
0.5 0.5 0.5
0.5 -0.5 0
0.5 0 -0.5
0 0 0
1 0 0
0.5 0.5 0
0.5 0 0.5
0.5 0 0
0 -0.25 -0.5
0 0.25 -0.5
0 -0.5 -0.25
0 -0.5 0.25
1 -0.25 -0.5
1 0.25 -0.5
1 -0.5 -0.25
1 -0.5 0.25
0 0.5 -0.25
0 0.5 0.25
1 0.5 -0.25
1 0.5 0.25
0 -0.25 0.5
0 0.25 0.5
1 -0.25 0.5
1 0.25 0.5
0.5 -0.5 -0.25
0.5 -0.5 0.25
0.5 -0.25 -0.5
0.5 0.25 -0.5
0 0 -0.25
0 0 0.25
0 -0.25 0
0 0.25 0
1 0 -0.25
1 0 0.25
1 -0.25 0
1 0.25 0
0.5 0.5 -0.25
0.5 0.5 0.25
0.5 -0.25 0.5
0.5 0.25 0.5
0.5 0 0.25
0.5 0 -0.25
0.5 0.25 0
0.5 -0.25 0
0 -0.25 -0.25
0 0.25 -0.25
0 -0.25 0.25
0 0.25 0.25
1 -0.25 -0.25
1 0.25 -0.25
1 -0.25 0.25
1 0.25 0.25
0.5 0.25 0.25
0.5 -0.25 0.25
0.5 0.25 -0.25
0.5 -0.25 -0.25

CELLS 32 288
8 0 8 45 27 29 43 74 63
8 27 45 21 9 63 74 60 47
8 29 43 74 63 10 20 62 49
8 63 74 60 47 49 62 26 22
8 8 1 31 45 43 33 67 74
8 45 31 11 21 74 67 51 60
8 43 33 67 74 20 12 53 62
8 74 67 51 60 62 53 23 26
8 9 21 46 28 47 60 73 64
8 28 46 13 2 64 73 55 35
8 47 60 73 64 22 26 61 50
8 64 73 55 35 50 61 24 14
8 21 11 32 46 60 51 68 73
8 46 32 3 13 73 68 37 55
8 60 51 68 73 26 23 54 61
8 73 68 37 55 61 54 15 24
8 10 20 62 49 30 44 72 65
8 49 62 26 22 65 72 59 48
8 30 44 72 65 4 16 57 39
8 65 72 59 48 39 57 25 17
8 20 12 53 62 44 34 69 72
8 62 53 23 26 72 69 52 59
8 44 34 69 72 16 5 41 57
8 72 69 52 59 57 41 18 25
8 22 26 61 50 48 59 71 66
8 50 61 24 14 66 71 56 36
8 48 59 71 66 17 25 58 40
8 66 71 56 36 40 58 19 6
8 26 23 54 61 59 52 70 71
8 61 54 15 24 71 70 38 56
8 59 52 70 71 25 18 42 58
8 71 70 38 56 58 42 7 19

CELL_TYPES 32
12 12 12 12 12 12 12 12 12 12 12 12 12 12 12 12 12 12 12 12 12 12 12 12 12 12 12 12 12 12 12 12 



CELL_DATA 32
SCALARS MaterialID int 1
LOOKUP_TABLE default
0 0 0 0 0 0 0 0 0 0 0 0 0 0 0 0 0 0 0 0 0 0 0 0 0 0 0 0 0 0 0 0 



SCALARS ManifoldID int 1
LOOKUP_TABLE default
-1 -1 -1 -1 -1 -1 -1 -1 -1 -1 -1 -1 -1 -1 -1 -1 -1 -1 -1 -1 -1 -1 -1 -1 -1 -1 -1 -1 -1 -1 -1 -1 


