# vtk DataFile Version 3.0
Triangulation generated with deal.II
ASCII
DATASET UNSTRUCTURED_GRID
POINTS 1265 double
0 -0.5 -0.5
1 -0.5 -0.5
0 0.5 -0.5
1 0.5 -0.5
0 -0.5 0.5
1 -0.5 0.5
0 0.5 0.5
1 0.5 0.5
0.5 -0.5 -0.5
0 0 -0.5
0 -0.5 0
1 0 -0.5
1 -0.5 0
0.5 0.5 -0.5
0 0.5 0
1 0.5 0
0.5 -0.5 0.5
0 0 0.5
1 0 0.5
0.5 0.5 0.5
0.5 -0.5 0
0.5 0 -0.5
0 0 0
1 0 0
0.5 0.5 0
0.5 0 0.5
0.5 0 0
0.25 -0.5 -0.5
0.75 -0.5 -0.5
0 -0.25 -0.5
0 0.25 -0.5
0 -0.5 -0.25
0 -0.5 0.25
1 -0.25 -0.5
1 0.25 -0.5
1 -0.5 -0.25
1 -0.5 0.25
0.25 0.5 -0.5
0.75 0.5 -0.5
0 0.5 -0.25
0 0.5 0.25
1 0.5 -0.25
1 0.5 0.25
0.25 -0.5 0.5
0.75 -0.5 0.5
0 -0.25 0.5
0 0.25 0.5
1 -0.25 0.5
1 0.25 0.5
0.25 0.5 0.5
0.75 0.5 0.5
0.25 -0.5 0
0.75 -0.5 0
0.5 -0.5 -0.25
0.5 -0.5 0.25
0.5 -0.25 -0.5
0.5 0.25 -0.5
0.25 0 -0.5
0.75 0 -0.5
0 0 -0.25
0 0 0.25
0 -0.25 0
0 0.25 0
1 0 -0.25
1 0 0.25
1 -0.25 0
1 0.25 0
0.25 0.5 0
0.75 0.5 0
0.5 0.5 -0.25
0.5 0.5 0.25
0.5 -0.25 0.5
0.5 0.25 0.5
0.25 0 0.5
0.75 0 0.5
0.5 0 0.25
0.5 0 -0.25
0.75 0 0
0.25 0 0
0.5 0.25 0
0.5 -0.25 0
0.25 -0.5 -0.25
0.25 -0.5 0.25
0.75 -0.5 -0.25
0.75 -0.5 0.25
0.25 -0.25 -0.5
0.75 -0.25 -0.5
0.25 0.25 -0.5
0.75 0.25 -0.5
0 -0.25 -0.25
0 0.25 -0.25
0 -0.25 0.25
0 0.25 0.25
1 -0.25 -0.25
1 0.25 -0.25
1 -0.25 0.25
1 0.25 0.25
0.25 0.5 -0.25
0.25 0.5 0.25
0.75 0.5 -0.25
0.75 0.5 0.25
0.25 -0.25 0.5
0.75 -0.25 0.5
0.25 0.25 0.5
0.75 0.25 0.5
0.75 0.25 0
0.25 0.25 0
0.75 -0.25 0
0.25 -0.25 0
0.75 0 0.25
0.75 0 -0.25
0.25 0 0.25
0.25 0 -0.25
0.5 0.25 0.25
0.5 -0.25 0.25
0.5 0.25 -0.25
0.5 -0.25 -0.25
0.25 -0.25 -0.25
0.75 -0.25 -0.25
0.25 0.25 -0.25
0.75 0.25 -0.25
0.25 -0.25 0.25
0.75 -0.25 0.25
0.25 0.25 0.25
0.75 0.25 0.25
0 -0.375 -0.5
0 -0.125 -0.5
0 0.125 -0.5
0 0.375 -0.5
0 -0.5 -0.375
0 -0.5 -0.125
0 -0.5 0.125
0 -0.5 0.375
1 -0.375 -0.5
1 -0.125 -0.5
1 0.125 -0.5
1 0.375 -0.5
1 -0.5 -0.375
1 -0.5 -0.125
1 -0.5 0.125
1 -0.5 0.375
0 0.5 -0.375
0 0.5 -0.125
0 0.5 0.125
0 0.5 0.375
1 0.5 -0.375
1 0.5 -0.125
1 0.5 0.125
1 0.5 0.375
0 -0.375 0.5
0 -0.125 0.5
0 0.125 0.5
0 0.375 0.5
1 -0.375 0.5
1 -0.125 0.5
1 0.125 0.5
1 0.375 0.5
0.5 -0.5 -0.375
0.5 -0.5 -0.125
0.5 -0.5 0.125
0.5 -0.5 0.375
0.5 -0.375 -0.5
0.5 -0.125 -0.5
0.5 0.125 -0.5
0.5 0.375 -0.5
0 0 -0.375
0 0 -0.125
0 0 0.125
0 0 0.375
0 -0.375 0
0 -0.125 0
0 0.125 0
0 0.375 0
1 0 -0.375
1 0 -0.125
1 0 0.125
1 0 0.375
1 -0.375 0
1 -0.125 0
1 0.125 0
1 0.375 0
0.5 0.5 -0.375
0.5 0.5 -0.125
0.5 0.5 0.125
0.5 0.5 0.375
0.5 -0.375 0.5
0.5 -0.125 0.5
0.5 0.125 0.5
0.5 0.375 0.5
0.5 0 0.125
0.5 0 0.375
0.5 0 -0.375
0.5 0 -0.125
0.5 0.125 0
0.5 0.375 0
0.5 -0.375 0
0.5 -0.125 0
0.25 -0.5 -0.375
0.25 -0.5 -0.125
0.25 -0.5 0.125
0.25 -0.5 0.375
0.75 -0.5 -0.375
0.75 -0.5 -0.125
0.75 -0.5 0.125
0.75 -0.5 0.375
0.25 -0.375 -0.5
0.25 -0.125 -0.5
0.75 -0.375 -0.5
0.75 -0.125 -0.5
0.25 0.125 -0.5
0.25 0.375 -0.5
0.75 0.125 -0.5
0.75 0.375 -0.5
0 -0.25 -0.375
0 -0.25 -0.125
0 -0.375 -0.25
0 -0.125 -0.25
0 0.25 -0.375
0 0.25 -0.125
0 0.125 -0.25
0 0.375 -0.25
0 -0.25 0.125
0 -0.25 0.375
0 -0.375 0.25
0 -0.125 0.25
0 0.25 0.125
0 0.25 0.375
0 0.125 0.25
0 0.375 0.25
1 -0.25 -0.375
1 -0.25 -0.125
1 -0.375 -0.25
1 -0.125 -0.25
1 0.25 -0.375
1 0.25 -0.125
1 0.125 -0.25
1 0.375 -0.25
1 -0.25 0.125
1 -0.25 0.375
1 -0.375 0.25
1 -0.125 0.25
1 0.25 0.125
1 0.25 0.375
1 0.125 0.25
1 0.375 0.25
0.25 0.5 -0.375
0.25 0.5 -0.125
0.25 0.5 0.125
0.25 0.5 0.375
0.75 0.5 -0.375
0.75 0.5 -0.125
0.75 0.5 0.125
0.75 0.5 0.375
0.25 -0.375 0.5
0.25 -0.125 0.5
0.75 -0.375 0.5
0.75 -0.125 0.5
0.25 0.125 0.5
0.25 0.375 0.5
0.75 0.125 0.5
0.75 0.375 0.5
0.75 0.125 0
0.75 0.375 0
0.25 0.125 0
0.25 0.375 0
0.75 -0.375 0
0.75 -0.125 0
0.25 -0.375 0
0.25 -0.125 0
0.75 0 0.125
0.75 0 0.375
0.75 0 -0.375
0.75 0 -0.125
0.25 0 0.125
0.25 0 0.375
0.25 0 -0.375
0.25 0 -0.125
0.5 0.25 0.125
0.5 0.25 0.375
0.5 0.125 0.25
0.5 0.375 0.25
0.5 -0.25 0.125
0.5 -0.25 0.375
0.5 -0.375 0.25
0.5 -0.125 0.25
0.5 0.25 -0.375
0.5 0.25 -0.125
0.5 0.125 -0.25
0.5 0.375 -0.25
0.5 -0.25 -0.375
0.5 -0.25 -0.125
0.5 -0.375 -0.25
0.5 -0.125 -0.25
0.75 0.25 0.375
0.75 0.25 0.125
0.75 0.375 0.25
0.75 0.125 0.25
0.25 0.25 0.375
0.25 0.25 0.125
0.25 0.375 0.25
0.25 0.125 0.25
0.75 -0.25 0.375
0.75 -0.25 0.125
0.75 -0.125 0.25
0.75 -0.375 0.25
0.25 -0.25 0.375
0.25 -0.25 0.125
0.25 -0.125 0.25
0.25 -0.375 0.25
0.75 0.25 -0.125
0.75 0.25 -0.375
0.75 0.375 -0.25
0.75 0.125 -0.25
0.25 0.25 -0.125
0.25 0.25 -0.375
0.25 0.375 -0.25
0.25 0.125 -0.25
0.75 -0.25 -0.125
0.75 -0.25 -0.375
0.75 -0.125 -0.25
0.75 -0.375 -0.25
0.25 -0.25 -0.125
0.25 -0.25 -0.375
0.25 -0.125 -0.25
0.25 -0.375 -0.25
0 -0.375 -0.375
0 -0.125 -0.375
0 -0.375 -0.125
0 -0.125 -0.125
0 0.125 -0.375
0 0.375 -0.375
0 0.125 -0.125
0 0.375 -0.125
0 -0.375 0.125
0 -0.125 0.125
0 -0.375 0.375
0 -0.125 0.375
0 0.125 0.125
0 0.375 0.125
0 0.125 0.375
0 0.375 0.375
1 -0.375 -0.375
1 -0.125 -0.375
1 -0.375 -0.125
1 -0.125 -0.125
1 0.125 -0.375
1 0.375 -0.375
1 0.125 -0.125
1 0.375 -0.125
1 -0.375 0.125
1 -0.125 0.125
1 -0.375 0.375
1 -0.125 0.375
1 0.125 0.125
1 0.375 0.125
1 0.125 0.375
1 0.375 0.375
0.5 0.125 0.125
0.5 0.375 0.125
0.5 0.125 0.375
0.5 0.375 0.375
0.5 -0.375 0.125
0.5 -0.125 0.125
0.5 -0.375 0.375
0.5 -0.125 0.375
0.5 0.125 -0.375
0.5 0.375 -0.375
0.5 0.125 -0.125
0.5 0.375 -0.125
0.5 -0.375 -0.375
0.5 -0.125 -0.375
0.5 -0.375 -0.125
0.5 -0.125 -0.125
0.75 0.375 0.375
0.75 0.125 0.375
0.75 0.375 0.125
0.75 0.125 0.125
0.25 0.375 0.375
0.25 0.125 0.375
0.25 0.375 0.125
0.25 0.125 0.125
0.75 -0.125 0.375
0.75 -0.375 0.375
0.75 -0.125 0.125
0.75 -0.375 0.125
0.25 -0.125 0.375
0.25 -0.375 0.375
0.25 -0.125 0.125
0.25 -0.375 0.125
0.75 0.375 -0.125
0.75 0.125 -0.125
0.75 0.375 -0.375
0.75 0.125 -0.375
0.25 0.375 -0.125
0.25 0.125 -0.125
0.25 0.375 -0.375
0.25 0.125 -0.375
0.75 -0.125 -0.125
0.75 -0.375 -0.125
0.75 -0.125 -0.375
0.75 -0.375 -0.375
0.25 -0.125 -0.125
0.25 -0.375 -0.125
0.25 -0.125 -0.375
0.25 -0.375 -0.375
0 -0.1875 -0.5
0 -0.0625 -0.5
0 0.0625 -0.5
0 0.1875 -0.5
0 -0.5 -0.1875
0 -0.5 -0.0625
0 -0.5 0.0625
0 -0.5 0.1875
1 -0.1875 -0.5
1 -0.0625 -0.5
1 0.0625 -0.5
1 0.1875 -0.5
1 -0.5 -0.1875
1 -0.5 -0.0625
1 -0.5 0.0625
1 -0.5 0.1875
0 0.5 -0.1875
0 0.5 -0.0625
0 0.5 0.0625
0 0.5 0.1875
1 0.5 -0.1875
1 0.5 -0.0625
1 0.5 0.0625
1 0.5 0.1875
0 -0.1875 0.5
0 -0.0625 0.5
0 0.0625 0.5
0 0.1875 0.5
1 -0.1875 0.5
1 -0.0625 0.5
1 0.0625 0.5
1 0.1875 0.5
0.5 -0.5 -0.1875
0.5 -0.5 -0.0625
0.5 -0.5 0.0625
0.5 -0.5 0.1875
0.5 -0.1875 -0.5
0.5 -0.0625 -0.5
0.5 0.0625 -0.5
0.5 0.1875 -0.5
0 0 -0.4375
0 0 -0.3125
0 0 -0.1875
0 0 -0.0625
0 0 0.0625
0 0 0.1875
0 0 0.3125
0 0 0.4375
0 -0.4375 0
0 -0.3125 0
0 -0.1875 0
0 -0.0625 0
0 0.0625 0
0 0.1875 0
0 0.3125 0
0 0.4375 0
1 0 -0.4375
1 0 -0.3125
1 0 -0.1875
1 0 -0.0625
1 0 0.0625
1 0 0.1875
1 0 0.3125
1 0 0.4375
1 -0.4375 0
1 -0.3125 0
1 -0.1875 0
1 -0.0625 0
1 0.0625 0
1 0.1875 0
1 0.3125 0
1 0.4375 0
0.5 0.5 -0.1875
0.5 0.5 -0.0625
0.5 0.5 0.0625
0.5 0.5 0.1875
0.5 -0.1875 0.5
0.5 -0.0625 0.5
0.5 0.0625 0.5
0.5 0.1875 0.5
0.5 0 0.0625
0.5 0 0.1875
0.5 0 0.3125
0.5 0 0.4375
0.5 0 -0.4375
0.5 0 -0.3125
0.5 0 -0.1875
0.5 0 -0.0625
0.5 0.0625 0
0.5 0.1875 0
0.5 0.3125 0
0.5 0.4375 0
0.5 -0.4375 0
0.5 -0.3125 0
0.5 -0.1875 0
0.5 -0.0625 0
0.25 -0.5 -0.1875
0.25 -0.5 -0.0625
0.25 -0.5 0.0625
0.25 -0.5 0.1875
0.75 -0.5 -0.1875
0.75 -0.5 -0.0625
0.75 -0.5 0.0625
0.75 -0.5 0.1875
0.25 -0.1875 -0.5
0.25 -0.0625 -0.5
0.75 -0.1875 -0.5
0.75 -0.0625 -0.5
0.25 0.0625 -0.5
0.25 0.1875 -0.5
0.75 0.0625 -0.5
0.75 0.1875 -0.5
0 -0.25 -0.4375
0 -0.25 -0.3125
0 -0.25 -0.1875
0 -0.25 -0.0625
0 -0.4375 -0.25
0 -0.3125 -0.25
0 -0.1875 -0.25
0 -0.0625 -0.25
0 0.25 -0.4375
0 0.25 -0.3125
0 0.25 -0.1875
0 0.25 -0.0625
0 0.0625 -0.25
0 0.1875 -0.25
0 0.3125 -0.25
0 0.4375 -0.25
0 -0.25 0.0625
0 -0.25 0.1875
0 -0.25 0.3125
0 -0.25 0.4375
0 -0.4375 0.25
0 -0.3125 0.25
0 -0.1875 0.25
0 -0.0625 0.25
0 0.25 0.0625
0 0.25 0.1875
0 0.25 0.3125
0 0.25 0.4375
0 0.0625 0.25
0 0.1875 0.25
0 0.3125 0.25
0 0.4375 0.25
1 -0.25 -0.4375
1 -0.25 -0.3125
1 -0.25 -0.1875
1 -0.25 -0.0625
1 -0.4375 -0.25
1 -0.3125 -0.25
1 -0.1875 -0.25
1 -0.0625 -0.25
1 0.25 -0.4375
1 0.25 -0.3125
1 0.25 -0.1875
1 0.25 -0.0625
1 0.0625 -0.25
1 0.1875 -0.25
1 0.3125 -0.25
1 0.4375 -0.25
1 -0.25 0.0625
1 -0.25 0.1875
1 -0.25 0.3125
1 -0.25 0.4375
1 -0.4375 0.25
1 -0.3125 0.25
1 -0.1875 0.25
1 -0.0625 0.25
1 0.25 0.0625
1 0.25 0.1875
1 0.25 0.3125
1 0.25 0.4375
1 0.0625 0.25
1 0.1875 0.25
1 0.3125 0.25
1 0.4375 0.25
0.25 0.5 -0.1875
0.25 0.5 -0.0625
0.25 0.5 0.0625
0.25 0.5 0.1875
0.75 0.5 -0.1875
0.75 0.5 -0.0625
0.75 0.5 0.0625
0.75 0.5 0.1875
0.25 -0.1875 0.5
0.25 -0.0625 0.5
0.75 -0.1875 0.5
0.75 -0.0625 0.5
0.25 0.0625 0.5
0.25 0.1875 0.5
0.75 0.0625 0.5
0.75 0.1875 0.5
0.75 0.0625 0
0.75 0.1875 0
0.75 0.3125 0
0.75 0.4375 0
0.25 0.0625 0
0.25 0.1875 0
0.25 0.3125 0
0.25 0.4375 0
0.75 -0.4375 0
0.75 -0.3125 0
0.75 -0.1875 0
0.75 -0.0625 0
0.25 -0.4375 0
0.25 -0.3125 0
0.25 -0.1875 0
0.25 -0.0625 0
0.75 0 0.0625
0.75 0 0.1875
0.75 0 0.3125
0.75 0 0.4375
0.75 0 -0.4375
0.75 0 -0.3125
0.75 0 -0.1875
0.75 0 -0.0625
0.25 0 0.0625
0.25 0 0.1875
0.25 0 0.3125
0.25 0 0.4375
0.25 0 -0.4375
0.25 0 -0.3125
0.25 0 -0.1875
0.25 0 -0.0625
0.5 0.25 0.0625
0.5 0.25 0.1875
0.5 0.25 0.3125
0.5 0.25 0.4375
0.5 0.0625 0.25
0.5 0.1875 0.25
0.5 0.3125 0.25
0.5 0.4375 0.25
0.5 -0.25 0.0625
0.5 -0.25 0.1875
0.5 -0.25 0.3125
0.5 -0.25 0.4375
0.5 -0.4375 0.25
0.5 -0.3125 0.25
0.5 -0.1875 0.25
0.5 -0.0625 0.25
0.5 0.25 -0.4375
0.5 0.25 -0.3125
0.5 0.25 -0.1875
0.5 0.25 -0.0625
0.5 0.0625 -0.25
0.5 0.1875 -0.25
0.5 0.3125 -0.25
0.5 0.4375 -0.25
0.5 -0.25 -0.4375
0.5 -0.25 -0.3125
0.5 -0.25 -0.1875
0.5 -0.25 -0.0625
0.5 -0.4375 -0.25
0.5 -0.3125 -0.25
0.5 -0.1875 -0.25
0.5 -0.0625 -0.25
0.75 0.25 0.3125
0.75 0.25 0.4375
0.75 0.25 0.0625
0.75 0.25 0.1875
0.75 0.3125 0.25
0.75 0.4375 0.25
0.75 0.0625 0.25
0.75 0.1875 0.25
0.25 0.25 0.3125
0.25 0.25 0.4375
0.25 0.25 0.0625
0.25 0.25 0.1875
0.25 0.3125 0.25
0.25 0.4375 0.25
0.25 0.0625 0.25
0.25 0.1875 0.25
0.75 -0.25 0.3125
[...]
CELL_DATA 880
SCALARS MaterialID int 1
LOOKUP_TABLE default
0 0 0 0 0 0 0 0 0 0 0 0 0 0 0 0 0 0 0 0 0 0 0 0 0 0 0 0 0 0 0 0 0 0 0 0 0 0 0 0 0 0 0 0 0 0 0 0 0 0 0 0 0 0 0 0 0 0 0 0 0 0 0 0 0 0 0 0 0 0 0 0 0 0 0 0 0 0 0 0 0 0 0 0 0 0 0 0 0 0 0 0 0 0 0 0 0 0 0 0 0 0 0 0 0 0 0 0 0 0 0 0 0 0 0 0 0 0 0 0 0 0 0 0 0 0 0 0 0 0 0 0 0 0 0 0 0 0 0 0 0 0 0 0 0 0 0 0 0 0 0 0 0 0 0 0 0 0 0 0 0 0 0 0 0 0 0 0 0 0 0 0 0 0 0 0 0 0 0 0 0 0 0 0 0 0 0 0 0 0 0 0 0 0 0 0 0 0 0 0 0 0 0 0 0 0 0 0 0 0 0 0 0 0 0 0 0 0 0 0 0 0 0 0 0 0 0 0 0 0 0 0 0 0 0 0 0 0 0 0 0 0 0 0 0 0 0 0 0 0 0 0 0 0 0 0 0 0 0 0 0 0 0 0 0 0 0 0 0 0 0 0 0 0 0 0 0 0 0 0 0 0 0 0 0 0 0 0 0 0 0 0 0 0 0 0 0 0 0 0 0 0 0 0 0 0 0 0 0 0 0 0 0 0 0 0 0 0 0 0 0 0 0 0 0 0 0 0 0 0 0 0 0 0 0 0 0 0 0 0 0 0 0 0 0 0 0 0 0 0 0 0 0 0 0 0 0 0 0 0 0 0 0 0 0 0 0 0 0 0 0 0 0 0 0 0 0 0 0 0 0 0 0 0 0 0 0 0 0 0 0 0 0 0 0 0 0 0 0 0 0 0 0 0 0 0 0 0 0 0 0 0 0 0 0 0 0 0 0 0 0 0 0 0 0 0 0 0 0 0 0 0 0 0 0 0 0 0 0 0 0 0 0 0 0 0 0 0 0 0 0 0 0 0 0 0 0 0 0 0 0 0 0 0 0 0 0 0 0 0 0 0 0 0 0 0 0 0 0 0 0 0 0 0 0 0 0 0 0 0 0 0 0 0 0 0 0 0 0 0 0 0 0 0 0 0 0 0 0 0 0 0 0 0 0 0 0 0 0 0 0 0 0 0 0 0 0 0 0 0 0 0 0 0 0 0 0 0 0 0 0 0 0 0 0 0 0 0 0 0 0 0 0 0 0 0 0 0 0 0 0 0 0 0 0 0 0 0 0 0 0 0 0 0 0 0 0 0 0 0 0 0 0 0 0 0 0 0 0 0 0 0 0 0 0 0 0 0 0 0 0 0 0 0 0 0 0 0 0 0 0 0 0 0 0 0 0 0 0 0 0 0 0 0 0 0 0 0 0 0 0 0 0 0 0 0 0 0 0 0 0 0 0 0 0 0 0 0 0 0 0 0 0 0 0 0 0 0 0 0 0 0 0 0 0 0 0 0 0 0 0 0 0 0 0 0 0 0 0 0 0 0 0 0 0 0 0 0 0 0 0 0 0 0 0 0 0 0 0 0 0 0 0 0 0 0 0 0 0 0 0 0 0 0 0 0 0 0 0 0 0 0 0 0 0 0 0 0 0 0 0 0 0 0 0 0 0 0 0 0 0 0 0 0 0 0 0 0 0 0 0 0 0 0 0 0 0 0 0 0 0 0 0 0 0 0 0 0 0 0 0 0 0 0 0 0 0 0 0 0 0 0 0 0 0 0 0 0 0 0 0 0 0 0 0 0 0 0 0 0 0 0 0 0 0 0 0 0 0 0 0 0 0 0 0 0 0 0 0 0 0 0 0 0 0 0 0 0 0 0 0 0 0 0 0 0 0 0 0 0 0 0 0 0 0 0 0 0 0 0 0 0 0 0 0 0 0 0 0 0 0 0 0 0 0 0 0 0 0 0 0 0 0 0 0 0 0 0 0 0 



SCALARS ManifoldID int 1
LOOKUP_TABLE default
-1 -1 -1 -1 -1 -1 -1 -1 -1 -1 -1 -1 -1 -1 -1 -1 -1 -1 -1 -1 -1 -1 -1 -1 -1 -1 -1 -1 -1 -1 -1 -1 -1 -1 -1 -1 -1 -1 -1 -1 -1 -1 -1 -1 -1 -1 -1 -1 -1 -1 -1 -1 -1 -1 -1 -1 -1 -1 -1 -1 -1 -1 -1 -1 -1 -1 -1 -1 -1 -1 -1 -1 -1 -1 -1 -1 -1 -1 -1 -1 -1 -1 -1 -1 -1 -1 -1 -1 -1 -1 -1 -1 -1 -1 -1 -1 -1 -1 -1 -1 -1 -1 -1 -1 -1 -1 -1 -1 -1 -1 -1 -1 -1 -1 -1 -1 -1 -1 -1 -1 -1 -1 -1 -1 -1 -1 -1 -1 -1 -1 -1 -1 -1 -1 -1 -1 -1 -1 -1 -1 -1 -1 -1 -1 -1 -1 -1 -1 -1 -1 -1 -1 -1 -1 -1 -1 -1 -1 -1 -1 -1 -1 -1 -1 -1 -1 -1 -1 -1 -1 -1 -1 -1 -1 -1 -1 -1 -1 -1 -1 -1 -1 -1 -1 -1 -1 -1 -1 -1 -1 -1 -1 -1 -1 -1 -1 -1 -1 -1 -1 -1 -1 -1 -1 -1 -1 -1 -1 -1 -1 -1 -1 -1 -1 -1 -1 -1 -1 -1 -1 -1 -1 -1 -1 -1 -1 -1 -1 -1 -1 -1 -1 -1 -1 -1 -1 -1 -1 -1 -1 -1 -1 -1 -1 -1 -1 -1 -1 -1 -1 -1 -1 -1 -1 -1 -1 -1 -1 -1 -1 -1 -1 -1 -1 -1 -1 -1 -1 -1 -1 -1 -1 -1 -1 -1 -1 -1 -1 -1 -1 -1 -1 -1 -1 -1 -1 -1 -1 -1 -1 -1 -1 -1 -1 -1 -1 -1 -1 -1 -1 -1 -1 -1 -1 -1 -1 -1 -1 -1 -1 -1 -1 -1 -1 -1 -1 -1 -1 -1 -1 -1 -1 -1 -1 -1 -1 -1 -1 -1 -1 -1 -1 -1 -1 -1 -1 -1 -1 -1 -1 -1 -1 -1 -1 -1 -1 -1 -1 -1 -1 -1 -1 -1 -1 -1 -1 -1 -1 -1 -1 -1 -1 -1 -1 -1 -1 -1 -1 -1 -1 -1 -1 -1 -1 -1 -1 -1 -1 -1 -1 -1 -1 -1 -1 -1 -1 -1 -1 -1 -1 -1 -1 -1 -1 -1 -1 -1 -1 -1 -1 -1 -1 -1 -1 -1 -1 -1 -1 -1 -1 -1 -1 -1 -1 -1 -1 -1 -1 -1 -1 -1 -1 -1 -1 -1 -1 -1 -1 -1 -1 -1 -1 -1 -1 -1 -1 -1 -1 -1 -1 -1 -1 -1 -1 -1 -1 -1 -1 -1 -1 -1 -1 -1 -1 -1 -1 -1 -1 -1 -1 -1 -1 -1 -1 -1 -1 -1 -1 -1 -1 -1 -1 -1 -1 -1 -1 -1 -1 -1 -1 -1 -1 -1 -1 -1 -1 -1 -1 -1 -1 -1 -1 -1 -1 -1 -1 -1 -1 -1 -1 -1 -1 -1 -1 -1 -1 -1 -1 -1 -1 -1 -1 -1 -1 -1 -1 -1 -1 -1 -1 -1 -1 -1 -1 -1 -1 -1 -1 -1 -1 -1 -1 -1 -1 -1 -1 -1 -1 -1 -1 -1 -1 -1 -1 -1 -1 -1 -1 -1 -1 -1 -1 -1 -1 -1 -1 -1 -1 -1 -1 -1 -1 -1 -1 -1 -1 -1 -1 -1 -1 -1 -1 -1 -1 -1 -1 -1 -1 -1 -1 -1 -1 -1 -1 -1 -1 -1 -1 -1 -1 -1 -1 -1 -1 -1 -1 -1 -1 -1 -1 -1 -1 -1 -1 -1 -1 -1 -1 -1 -1 -1 -1 -1 -1 -1 -1 -1 -1 -1 -1 -1 -1 -1 -1 -1 -1 -1 -1 -1 -1 -1 -1 -1 -1 -1 -1 -1 -1 -1 -1 -1 -1 -1 -1 -1 -1 -1 -1 -1 -1 -1 -1 -1 -1 -1 -1 -1 -1 -1 -1 -1 -1 -1 -1 -1 -1 -1 -1 -1 -1 -1 -1 -1 -1 -1 -1 -1 -1 -1 -1 -1 -1 -1 -1 -1 -1 -1 -1 -1 -1 -1 -1 -1 -1 -1 -1 -1 -1 -1 -1 -1 -1 -1 -1 -1 -1 -1 -1 -1 -1 -1 -1 -1 -1 -1 -1 -1 -1 -1 -1 -1 -1 -1 -1 -1 -1 -1 -1 -1 -1 -1 -1 -1 -1 -1 -1 -1 -1 -1 -1 -1 -1 -1 -1 -1 -1 -1 -1 -1 -1 -1 -1 -1 -1 -1 -1 -1 -1 -1 -1 -1 -1 -1 -1 -1 -1 -1 -1 -1 -1 -1 -1 -1 -1 -1 -1 -1 -1 -1 -1 -1 -1 -1 -1 -1 -1 -1 -1 -1 -1 -1 -1 -1 -1 -1 -1 -1 -1 -1 -1 -1 -1 -1 -1 -1 -1 -1 -1 -1 -1 -1 -1 -1 -1 -1 -1 -1 -1 -1 -1 -1 -1 -1 -1 -1 -1 -1 -1 -1 -1 -1 -1 -1 -1 -1 -1 -1 -1 -1 -1 -1 -1 -1 -1 -1 -1 -1 -1 -1 -1 -1 -1 -1 -1 -1 -1 -1 -1 -1 -1 -1 -1 -1 -1 -1 -1 -1 -1 -1 -1 -1 -1 -1 -1 -1 -1 -1 -1 -1 -1 


